# vtk DataFile Version 3.0
Sulci
ASCII
DATASET UNSTRUCTURED_GRID
POINTS 4273 float
92.139801 91.703018 60.152367
92.453972 91.619957 60.316647
93.861130 92.009438 60.577858
94.198677 92.035866 60.598701
95.335930 92.323807 61.011322
95.911919 92.555145 61.029827
96.489082 92.645920 61.238220
98.054169 92.676735 61.453987
99.398178 92.774384 61.868587
100.185547 92.629532 62.184135
101.142273 92.205521 62.308029
101.973801 91.912560 62.284649
102.584656 91.616455 62.149734
103.333038 91.321762 61.739086
103.822922 90.846741 61.519447
104.498444 90.825424 61.289722
105.065948 91.071274 60.442566
104.827454 91.735069 60.565914
105.385941 92.536026 59.850925
105.613419 92.876457 59.712231
106.506752 93.839684 59.242905
106.559822 93.933456 59.258404
107.692253 94.772881 58.914719
108.803055 95.209396 59.006020
109.672577 95.545929 59.055420
111.061790 95.865128 59.244713
111.748512 95.715118 59.305878
112.708755 95.754196 59.297432
113.401009 96.437195 59.437656
113.767303 96.627365 59.209484
112.804756 128.200714 62.205711
112.696548 128.441422 63.168404
113.269211 128.419754 64.113289
112.176056 128.331238 64.373436
111.419563 127.813309 65.685272
111.029022 127.391556 66.181816
110.723824 127.077454 66.645020
109.385132 125.868965 68.615501
108.765915 125.438416 69.494263
107.942261 124.679077 70.499329
107.775360 124.469498 71.339767
107.704376 124.135681 71.863701
107.460419 123.218872 73.235550
107.300499 122.526672 73.547394
107.219940 122.366653 74.417366
106.866409 121.459671 75.777824
106.308388 120.663254 77.469986
106.298096 120.630997 77.516991
106.251274 119.744530 79.174980
106.228790 119.677475 79.290436
105.950340 118.243591 80.736237
105.754707 117.714546 81.787735
105.469917 116.708054 83.397400
105.534531 116.305656 83.984970
105.542679 115.091682 85.485199
105.537766 114.915077 85.667709
105.515610 114.830513 85.688927
105.516090 114.226898 85.873596
105.999878 112.933495 86.517128
105.628197 112.483749 86.482841
106.035851 111.438950 87.216370
106.038467 111.219261 87.197586
105.923798 109.834152 86.585815
105.929794 109.295120 86.433922
105.771866 108.803093 86.445297
105.967834 107.158447 86.431534
106.054939 106.146591 86.234711
106.157059 105.350143 86.157677
106.601173 103.953598 86.092422
107.130051 103.218979 85.943886
107.205902 102.584930 86.011192
107.187180 101.792465 85.597389
107.145164 100.610931 85.351486
106.904335 99.970474 84.752022
106.916199 99.831940 84.511024
106.919945 99.540588 83.981339
107.301186 99.032684 83.350380
106.899834 99.177444 82.883072
106.779785 98.959892 81.446129
106.621307 98.615227 80.750313
106.310555 98.700310 79.445107
106.298698 98.708176 79.368652
106.303055 98.675575 79.356575
106.265549 98.625809 79.311218
105.871399 97.222321 78.089424
105.793022 96.617645 77.464661
106.063766 95.580124 78.174271
106.556053 94.946121 78.355835
106.872345 94.352112 78.579178
106.917389 93.479309 78.952026
106.778999 92.425697 78.081902
106.778999 92.425697 78.081902
107.597946 92.255928 79.735840
107.909912 91.729103 80.186691
108.938629 91.177002 81.066742
109.513947 89.930695 81.996284
109.551964 89.491035 82.385605
109.203659 88.529205 82.577950
108.987640 88.083008 82.584808
108.904968 87.877220 82.530838
108.436432 86.633667 82.025421
108.142746 85.915405 81.598038
107.832138 84.028809 81.504616
107.697495 83.633194 81.278809
107.039444 82.142998 81.777588
106.841454 81.709015 81.823975
106.812721 81.670326 81.852066
106.443474 80.370331 82.601257
106.301559 79.896133 82.833389
106.295723 79.834969 82.882599
106.036659 77.807022 84.048813
106.036125 77.798210 84.055084
106.035110 77.777191 84.073204
105.959602 76.044815 85.215698
105.998543 75.683853 85.445557
105.636192 74.134506 86.184860
105.570358 73.764450 86.304482
105.544991 73.617508 86.300446
105.516113 73.447861 86.515839
105.234818 71.712524 87.529480
104.965782 70.608826 88.338463
104.856033 70.241409 88.465927
104.777924 69.763718 88.516365
104.673927 68.605164 89.069275
104.322357 67.054497 90.561546
104.307953 66.975861 90.622650
104.305855 66.913483 90.687904
104.291908 65.544296 91.729828
104.433083 64.738586 92.147476
104.413162 63.670654 93.055832
104.437134 62.894379 93.744125
104.349480 61.409306 94.869812
104.318962 61.166828 94.894302
104.276390 60.714432 95.242653
104.086090 58.841232 96.132401
103.962036 58.456165 96.335144
103.857468 56.809761 97.853035
103.789604 56.528595 98.020050
103.630249 54.674335 99.149490
103.602493 54.272434 99.303223
103.588379 54.155678 99.407265
103.581757 54.074955 99.537651
103.476059 52.129906 101.085266
103.418060 51.190758 101.937271
103.335892 50.481827 102.404358
103.300316 49.889400 102.833160
103.266068 48.610626 104.217903
103.236130 48.295567 104.526039
103.243469 48.253319 104.925690
103.177101 47.208473 106.331406
103.018570 46.852280 107.028336
102.823761 45.971645 108.293091
102.831253 45.666950 108.677307
102.800964 45.231995 109.247116
102.629272 44.162552 110.076004
103.024803 43.058361 111.830864
103.359756 42.813831 112.264252
103.685074 42.660507 112.818878
104.929413 42.266518 114.334030
105.767380 42.301395 116.088799
105.922676 42.315937 116.265877
105.972900 42.370453 116.317184
106.154716 42.485565 116.589096
107.098831 42.979279 117.678291
107.168808 43.104259 118.147789
107.699760 43.761192 119.312698
107.778259 44.568237 120.203995
108.032440 45.140457 120.862350
108.225861 46.373661 122.171310
108.276184 46.537647 122.381454
108.284729 46.629272 122.433754
108.670990 48.304333 123.623413
108.646477 48.508266 123.870491
108.682091 49.846889 124.877167
108.711708 50.231972 125.214081
108.759888 50.343449 125.254196
108.722435 50.490837 125.464424
108.714996 49.369701 127.363998
108.714996 49.369701 127.363998
108.916351 51.436340 127.636063
109.049286 53.070427 128.511902
109.072456 53.175282 128.545059
109.077965 53.210575 128.552460
109.084679 53.258232 128.555649
109.777115 55.475773 128.650192
110.028900 55.861221 128.746521
110.667267 57.325104 128.116470
110.611229 58.494778 128.372238
110.745682 59.367962 128.148102
110.368401 60.603996 128.286499
110.291641 61.132778 128.619659
87.733887 109.394386 73.449203
87.827278 109.523659 72.926147
88.385612 110.215706 70.504715
88.419403 110.238777 70.416100
88.426582 110.248489 70.387840
89.739670 111.040779 68.347847
89.739197 111.064491 68.260605
89.744522 111.099113 68.141098
89.629639 111.400345 66.050766
90.326630 111.696365 65.681435
90.285103 112.052032 65.053864
90.055656 112.499588 63.633015
89.735741 112.682915 63.496567
89.019669 113.031189 62.283291
88.300293 127.167229 74.369949
89.011261 127.048355 74.551949
89.788971 126.928658 75.016441
90.325417 126.510635 75.578255
90.523888 126.576797 77.186310
90.618538 126.506660 77.351028
91.291016 125.520317 78.549011
91.400780 125.302353 78.851662
91.768463 124.121796 79.530113
91.904617 123.373398 80.003372
91.466446 123.082634 80.707634
91.000870 122.160912 81.436813
90.907578 121.238197 82.580673
90.990509 121.014572 82.865166
91.837936 120.397003 83.722298
91.998482 120.290581 83.866150
92.005951 120.223236 83.924782
92.094711 120.258408 83.912659
92.153374 120.310204 83.811111
93.249573 120.792755 82.733078
93.705643 121.028847 81.875870
94.499657 120.703629 81.634842
94.820572 120.799843 81.038948
69.800995 100.552368 82.565742
70.548248 100.696121 82.693649
72.542747 100.833870 83.234612
72.724747 100.822235 82.929268
73.358879 100.926315 83.027901
75.067307 101.049629 83.410393
76.389107 101.295334 83.426361
76.993385 101.366348 83.648476
78.423172 101.362427 83.860794
79.239716 101.508339 84.188492
80.546906 101.522751 84.790558
81.214050 101.415062 85.309067
82.159355 101.203751 86.684021
81.609840 101.152733 87.322357
71.998306 89.302040 83.218521
72.932655 89.330116 83.238159
73.837463 89.204971 82.999573
74.498756 89.280472 83.567902
75.049026 89.135742 83.668747
75.595016 89.151398 83.830254
76.712311 88.875198 83.735352
77.451172 88.364731 84.051804
79.482903 88.104301 84.510201
79.822548 87.987457 84.637466
81.346359 87.572006 85.189400
81.930550 87.358818 85.278603
82.366806 87.224991 85.391762
83.560890 86.456779 86.028610
84.870880 86.134338 86.697281
88.860703 103.739998 101.474998
89.180382 104.206161 102.778580
89.597031 104.703735 103.439156
89.777374 105.196892 104.353294
89.870743 105.653915 104.462219
91.038986 106.622177 105.411362
91.429199 107.287575 105.319519
92.175331 108.092834 105.569077
92.888474 109.667122 105.613342
92.889130 109.669044 105.613327
92.889694 109.669235 105.613731
92.888977 109.671349 105.612671
92.749496 110.898003 106.483002
92.749496 110.898003 106.483002
92.327583 111.491142 104.825195
91.633835 112.378418 104.128998
91.453568 112.690155 103.192307
91.475632 113.109268 102.709648
90.903580 113.697144 102.394432
90.769348 113.679230 102.373405
90.139191 114.015968 102.346039
89.852066 114.324348 102.723656
89.739540 115.078888 103.614548
89.578598 116.289505 104.875244
89.573914 116.296524 104.898727
89.006699 117.446999 107.088997
89.006699 117.446999 107.088997
88.343742 117.596382 109.293663
88.118668 117.716637 109.556229
87.147087 117.690735 110.459572
86.481339 117.284081 111.589996
86.411819 117.211166 111.704216
86.382339 117.164413 111.780251
85.573135 116.234009 112.784836
85.177292 116.028404 113.527878
84.802338 115.513901 113.921982
84.123489 114.891380 114.775749
83.618843 114.112854 115.483826
82.552666 112.984482 116.635910
82.298798 112.797829 116.774857
82.030548 112.422066 116.951973
80.708786 111.310982 117.297165
80.167603 110.904243 117.690544
78.631035 109.474022 118.451492
78.399178 109.327553 118.523109
78.360130 109.231293 118.549599
76.428818 107.631393 119.136200
76.109627 107.350082 119.212616
73.860947 105.424088 119.730003
[...]
POINT_DATA 4273
SCALARS scalars float
LOOKUP_TABLE default
0.354841
0.407723
0.562055
0.541063
0.593589
0.565376
0.577136
0.512119
0.504704
0.514222
0.488652
0.501355
0.498583
0.440808
0.470266
0.553343
0.392771
0.341075
0.427689
0.441318
0.561619
0.571271
0.536058
0.602055
0.598256
0.589338
0.509066
0.407856
0.402021
0.311436
0.209081
0.251794
0.208365
0.292306
0.364126
0.369967
0.386838
0.414165
0.432710
0.422853
0.458007
0.468442
0.494593
0.456859
0.499642
0.489957
0.565842
0.565121
0.559177
0.561064
0.451146
0.472472
0.482753
0.448431
0.402112
0.391737
0.385684
0.368476
0.303041
0.313029
0.331309
0.336364
0.370292
0.362618
0.394997
0.432760
0.442192
0.449183
0.423529
0.388621
0.414050
0.380181
0.412666
0.433142
0.407972
0.400014
0.322731
0.349241
0.344088
0.431045
0.376344
0.370491
0.369496
0.371501
0.359626
0.321659
0.322290
0.268163
0.281594
0.350142
0.358373
0.358373
0.427170
0.407340
0.372427
0.383476
0.383782
0.454478
0.472689
0.472330
0.437433
0.416501
0.396659
0.379335
0.397362
0.393492
0.395144
0.419041
0.424478
0.425439
0.426119
0.426138
0.426590
0.423932
0.425494
0.410963
0.400137
0.396696
0.401382
0.383213
0.388451
0.377057
0.376193
0.354675
0.377190
0.376968
0.375602
0.339755
0.318324
0.325181
0.328364
0.331563
0.328806
0.336834
0.341566
0.343489
0.374206
0.380197
0.389266
0.386535
0.387141
0.390568
0.388548
0.401221
0.397550
0.385572
0.395008
0.388972
0.406479
0.391601
0.413974
0.408962
0.389640
0.385599
0.355922
0.318193
0.294943
0.298187
0.270313
0.328659
0.329597
0.333074
0.339364
0.332050
0.345629
0.319514
0.347650
0.340379
0.336776
0.326339
0.325348
0.298477
0.299402
0.305027
0.300245
0.292939
0.296535
0.224701
0.224701
0.278211
0.306872
0.305787
0.306146
0.307886
0.290944
0.266704
0.196997
0.182422
0.147514
0.140218
0.113598
0.112413
0.110104
0.106793
0.106465
0.106761
0.134086
0.134549
0.136564
0.155645
0.168000
0.213799
0.256153
0.284655
0.285535
0.244951
0.251102
0.245610
0.221766
0.235539
0.239970
0.331080
0.348722
0.360177
0.308314
0.327335
0.311857
0.288038
0.273071
0.234928
0.226877
0.222014
0.228861
0.225875
0.201272
0.177803
0.149109
0.148903
0.372238
0.367709
0.252591
0.226753
0.220630
0.163575
0.164069
0.157958
0.155844
0.158367
0.156422
0.149128
0.145441
0.152502
0.550969
0.563246
0.488114
0.559464
0.501590
0.538113
0.438665
0.349663
0.352900
0.335833
0.307739
0.283664
0.272898
0.193570
0.206058
0.202858
0.217176
0.255815
0.266387
0.277400
0.289913
0.331112
0.353239
0.473772
0.473786
0.473889
0.474169
0.546587
0.546587
0.580562
0.503926
0.618882
0.676148
0.586464
0.569518
0.512824
0.453479
0.388358
0.356962
0.355824
0.266725
0.254222
0.256143
0.264286
0.250783
0.338044
0.341149
0.344860
0.298572
0.348585
0.349318
0.376419
0.369141
0.453332
0.448124
0.472721
0.446700
0.503292
0.597130
0.598109
0.606134
0.666996
0.659799
0.599637
0.597086
0.598049
0.596615
0.593351
0.464265
0.395579
0.421557
0.433401
0.428387
0.353409
0.252634
0.256936
0.150900
0.137963
0.387083
0.486880
0.429495
0.453571
0.482733
0.688473
0.690156
0.705526
0.792638
0.578091
0.562357
0.531360
0.359845
0.348418
0.268830
0.448986
0.449044
0.446137
0.424946
0.405245
0.389960
0.460835
0.474308
0.497196
0.517046
0.507538
0.532017
0.537309
0.481713
0.459323
0.311046
0.258697
0.246314
0.248933
0.359086
0.367928
0.506635
0.532314
0.502788
0.434770
0.497547
0.496690
0.498877
0.503360
0.492607
0.507643
0.498911
0.580718
0.575807
0.554724
0.522946
0.569623
0.526914
0.504535
0.466164
0.380717
0.283978
0.297452
0.305792
0.357844
0.377557
0.420914
0.422917
0.406197
0.402454
0.407001
0.402816
0.429095
0.430578
0.434170
0.414154
0.377370
0.410971
0.331141
0.320283
0.336880
0.333372
0.382370
0.364797
0.318016
0.304140
0.346598
0.371102
0.357006
0.379378
0.448751
0.416676
0.346216
0.362752
0.354469
0.368996
0.361069
0.344434
0.329928
0.321457
0.332861
0.331720
0.335969
0.355310
0.366738
0.370413
0.373610
0.410529
0.418240
0.392097
0.440343
0.438906
0.432959
0.432785
0.440295
0.428730
0.399947
0.383753
0.387293
0.358162
0.378690
0.332770
0.309346
0.248182
0.221331
0.193573
0.200570
0.202681
0.267324
0.302044
0.333171
0.395982
0.402698
0.344413
0.346578
0.338779
0.305471
0.263939
0.278709
0.245602
0.260299
0.269170
0.121905
0.143068
0.133922
0.145354
0.154831
0.154328
0.165270
0.184474
0.195762
0.230055
0.151758
0.202992
0.222052
0.223439
0.244099
0.279377
0.320404
0.347294
0.357443
0.383985
0.375628
0.364802
0.336462
0.264081
0.453853
0.477299
0.566062
0.580114
0.549920
0.570227
0.518030
0.519900
0.489733
0.518688
0.521449
0.519273
0.498317
0.511284
0.485801
0.504413
0.502127
0.467709
0.477260
0.463610
0.505323
0.490715
0.507442
0.479036
0.452586
0.445332
0.444769
0.388057
0.404321
0.353995
0.382416
0.414788
0.411829
0.412520
0.416502
0.527613
0.529220
0.523015
0.521570
0.524357
0.499463
0.475610
0.471914
0.477856
0.471867
0.389838
0.300213
0.234582
0.250507
0.316948
0.319311
0.349240
0.313480
0.237766
0.245816
0.258379
0.280829
0.235929
0.242402
0.341263
0.344772
0.349675
0.343321
0.281100
0.259329
0.209358
0.184394
0.186288
0.149135
0.141094
0.140867
0.114949
0.100317
0.321163
0.338724
0.352642
0.387238
0.416873
0.403699
0.444187
0.479562
0.529137
0.488294
0.475852
0.450893
0.473756
0.357095
0.290907
0.362030
0.408230
0.388841
0.467901
0.475929
0.460472
0.472765
0.413704
0.384453
0.374157
0.338271
0.355193
0.352039
0.348446
0.337932
0.313438
0.326845
0.292521
0.283726
0.282747
0.331933
0.333842
0.338624
0.286211
0.253980
0.271436
0.269967
0.266126
0.265391
0.258477
0.263322
0.248884
0.245878
0.250552
0.382804
0.443539
0.556894
0.551940
0.546538
0.505067
0.515982
0.497547
0.508503
0.556488
0.558125
0.554740
0.564792
0.565587
0.562928
0.554978
0.557222
0.560600
0.560322
0.494844
0.499564
0.472098
0.459216
0.414063
0.424519
0.395831
0.365284
0.367897
0.348754
0.371549
0.363601
0.303337
0.428105
0.428883
0.412959
0.414665
0.416453
0.426782
0.431126
0.418232
0.392481
0.279190
0.307632
0.326705
0.268315
0.486892
0.498585
0.500744
0.491397
0.489890
0.449508
0.413824
0.425023
0.404226
0.333129
0.372434
0.324582
0.344960
0.325443
0.342821
0.345059
0.342321
0.340675
0.309752
0.333228
0.366491
0.391932
0.441206
0.452181
0.461778
0.429347
0.407671
0.380266
0.443065
0.496556
0.431681
0.421416
0.366512
0.273997
0.355996
0.419376
0.449927
0.495140
0.471409
0.422069
0.405865
0.375356
0.331349
0.362622
0.394197
0.406898
0.399182
0.419201
0.413054
0.399528
0.365890
0.310471
0.369857
0.333103
0.337633
0.411636
0.398689
0.399990
0.373501
0.310164
0.110044
0.110280
0.114649
0.120012
0.127195
0.184129
0.193194
0.209543
0.287208
0.347267
0.449461
0.443339
0.460151
0.424694
0.266555
0.328229
0.315252
0.319049
0.321593
0.318053
0.324642
0.296474
0.343790
0.343599
0.334114
0.383598
0.470127
0.434991
0.485092
0.524318
0.501151
0.510544
0.489447
0.333707
0.299770
0.318214
0.402527
0.402268
0.369909
0.381046
0.386695
0.379418
0.399914
0.489066
0.500432
0.499679
0.512138
0.564767
0.558413
0.605713
0.600921
0.589226
0.486639
0.496720
0.458974
0.403304
0.389732
0.406869
0.405335
0.440573
0.434450
0.446981
0.489654
0.475439
0.415890
0.367949
0.385603
0.386964
0.384184
0.373228
0.371912
0.373869
0.386469
0.380874
0.387985
0.331929
0.378210
0.368420
0.394191
0.403395
0.422802
0.497531
0.426535
0.474305
0.532077
0.492168
0.568667
0.661411
0.595156
0.578537
0.576381
0.574131
0.513438
0.539965
0.518887
0.531501
0.518760
0.514847
0.457863
0.481534
0.399928
0.386285
0.342985
0.346139
0.315708
0.309565
0.285469
0.287460
0.278779
0.301694
0.221058
0.116495
0.132422
0.166534
0.194079
0.263298
0.291337
0.303278
0.344446
0.321590
0.311310
0.349435
0.321398
0.283682
0.219573
0.286451
0.295947
0.333929
0.407339
0.486609
0.518280
0.502486
0.510029
0.516102
0.484900
0.545402
0.529662
0.483066
0.453821
0.446901
0.439596
0.436421
0.364037
0.303831
0.323287
0.467415
0.611713
0.703988
0.654740
0.560079
0.581851
0.560343
0.548550
0.566460
0.541764
0.552520
0.550383
0.564738
0.516259
0.424604
0.473438
0.499027
0.545622
0.572185
0.618209
0.602045
0.599725
0.578216
0.527911
0.472701
0.477338
0.494524
0.477425
0.494015
0.481006
0.457274
0.444178
0.474039
0.469482
0.483387
0.502382
0.498125
0.475513
0.456932
0.558006
0.558010
0.532783
0.525383
0.435617
0.453896
0.489897
0.505255
0.481873
0.366046
0.106022
0.137941
0.138292
0.138595
0.138188
0.157847
0.157890
0.130493
0.141812
0.135008
0.142467
0.260288
0.507161
0.509100
0.511180
0.454878
0.493651
0.507627
0.540813
0.538182
0.499961
0.484221
0.434991
0.351872
0.356934
0.413102
0.352895
0.435710
0.424113
0.375637
0.390392
0.392508
0.384824
0.453401
0.515571
0.553105
0.535799
0.492559
0.483662
0.445995
0.420604
0.424983
0.413478
0.410218
0.367560
0.326496
0.316742
0.307835
0.285287
0.282905
0.297889
0.294271
0.305000
0.303088
0.401688
0.404978
0.368753
0.351879
0.326005
0.338663
0.308474
0.302381
0.306043
0.334328
0.385058
0.450223
0.454348
0.394854
0.369910
0.355387
0.348397
0.339593
0.298484
0.276722
0.308041
0.351178
0.324863
0.318619
0.276754
0.304083
0.351357
0.362706
0.350156
0.332144
0.339466
0.342000
0.358089
0.383704
0.370375
0.375539
0.342701
0.383329
0.382517
0.383750
0.369345
0.369739
0.329830
0.365549
0.349629
0.324145
0.307637
0.294117
0.289292
0.345141
0.367558
0.383749
0.408306
0.403871
0.369786
0.382914
0.306333
0.287018
0.284915
0.299947
0.300121
0.300291
0.333502
0.352770
0.354935
0.337998
0.381465
0.401650
0.385907
0.397455
0.391790
0.340968
0.358371
0.353947
0.361898
0.353970
0.387378
0.392338
0.414470
0.410750
0.428111
0.393280
0.331632
0.363069
0.407131
0.406356
0.386605
0.429087
0.430353
0.431891
0.451496
0.479819
0.492339
0.446825
0.465702
0.486228
0.493158
0.467817
0.510254
0.467481
0.416340
0.402766
0.396307
0.338820
0.281589
0.306115
0.492934
0.514736
0.500371
0.552468
0.557338
0.536122
0.592315
0.588809
0.788058
0.790476
0.793056
0.751462
0.655455
0.630584
0.649815
0.624187
0.577878
0.671001
0.661709
0.769647
0.652057
0.651559
0.582308
0.578098
0.618949
0.646120
0.677698
0.639352
0.587842
0.447823
0.422356
0.371615
0.331740
0.400049
0.398461
0.398223
0.306321
0.378440
0.235676
0.226378
0.267205
0.263294
0.202463
0.179349
0.175541
0.173365
0.132114
0.126334
0.111063
0.118956
0.293490
0.338903
0.351751
0.341504
0.389163
0.410170
0.420535
0.409151
0.396553
0.416117
0.454193
0.496023
0.509616
0.501141
0.375797
0.360536
0.357457
0.305788
0.292162
0.454686
0.525669
0.549401
0.562927
0.558661
0.539083
0.429859
0.398001
0.342514
0.280228
0.254516
0.276176
0.266970
0.214096
0.152129
0.124150
0.170058
0.171034
0.171814
0.188662
0.211508
0.212594
0.234933
0.246749
0.271816
0.315954
0.356459
0.356459
0.325062
0.321070
0.351473
0.347476
0.344688
0.351688
0.389889
0.397188
0.355097
0.355202
0.317512
0.367724
0.345163
0.364706
0.301065
0.382628
0.384010
0.349867
0.317719
0.300575
0.339754
0.370414
0.348760
0.368100
0.392289
0.396525
0.426034
0.415915
0.427565
0.390824
0.397662
0.427254
0.363619
0.375461
0.374526
0.393677
0.393528
0.381119
0.376352
0.368688
0.373229
0.411451
0.480747
0.497287
0.518489
0.535387
0.497074
0.448847
0.432966
0.432200
0.352154
0.336443
0.334343
0.268030
0.283035
0.266671
0.280458
0.304426
0.295435
0.305678
0.301620
0.262169
0.230264
0.283150
0.283401
0.292521
0.276179
0.343554
0.343670
0.278598
0.292748
0.283155
0.339624
0.340384
0.336705
0.361609
0.411062
0.389851
0.334291
0.285417
0.282049
0.273165
0.259836
0.190852
0.261498
0.312475
0.310389
0.314411
0.315132
0.309883
0.285229
0.288711
0.312661
0.371848
0.372398
0.414387
0.419258
0.408267
0.354970
0.377566
0.380922
0.410670
0.417230
0.356021
0.339483
0.348642
0.312058
0.273528
0.294940
0.377455
0.411651
0.475089
0.477511
0.417801
0.498200
0.513735
0.532040
0.525281
0.465206
0.464094
0.412628
0.315010
0.331861
0.400091
0.488553
0.467915
0.502984
0.438376
0.529677
0.522498
0.533264
0.529608
0.529107
0.431897
0.452191
0.438301
0.450327
0.434744
0.422298
0.405281
0.369349
0.378703
0.377588
0.372390
0.376783
0.372111
0.392415
0.416630
0.372402
0.211089
0.404061
0.421840
0.431788
0.462639
0.463643
0.481041
0.473643
0.466961
0.391819
0.288211
0.260665
0.405576
0.427325
0.458733
0.443535
0.470852
0.460019
0.446603
0.348640
0.348958
0.839357
0.635768
0.890008
0.767361
0.745342
0.532150
0.572435
0.522937
0.467099
0.459490
0.463079
0.402407
0.436781
0.502135
0.498762
0.512290
0.524060
0.524060
0.572108
0.560551
0.620144
0.601880
0.610852
0.605166
0.608538
0.547666
0.547939
0.514355
0.607956
0.615416
0.622076
0.650102
0.569328
0.203652
0.285500
0.358670
0.408897
0.487891
0.509826
0.575025
0.547652
0.463890
0.467622
0.459635
0.433343
0.444024
0.421012
0.419360
0.345930
0.377920
0.414867
0.465108
0.472314
0.438365
0.414853
0.422889
0.379879
0.357342
0.368301
0.365593
0.358529
0.355733
0.396800
0.394949
0.313546
0.476384
0.479465
0.499493
0.502489
0.514856
0.517996
0.515964
0.518099
0.450670
0.489584
0.449100
0.360953
0.274864
0.264759
0.261171
0.200716
0.205247
0.216588
0.403907
0.571388
0.636260
0.652846
0.649054
0.661224
0.612183
0.645733
0.602482
0.653139
0.615328
0.606030
0.638901
0.637968
0.638600
0.585691
0.592558
0.518655
0.322132
0.379527
0.306421
0.355752
0.425239
0.442894
0.542807
0.594302
0.595764
0.525122
0.533665
0.620996
0.617245
0.513331
0.528595
0.433038
0.423515
0.416690
0.415164
0.200997
0.421694
0.434117
0.354724
0.487540
0.484959
0.551005
0.554657
0.559814
0.476466
0.492920
0.539014
0.539661
0.553104
0.525439
0.488161
0.475621
0.498933
0.458318
0.482820
0.499449
0.520270
0.484708
0.507690
0.486105
0.458892
0.475625
0.465604
0.496759
0.517310
0.517210
0.484984
0.520900
0.499564
0.511516
0.485895
0.500917
0.507578
0.459133
0.373174
0.390912
0.390058
0.424114
0.421867
0.454519
0.466408
0.472179
0.465192
0.484107
0.472064
0.443070
0.430362
0.355096
0.326584
0.297798
0.230009
0.263745
0.267456
0.296189
0.279986
0.201282
0.255504
0.257703
0.279206
0.275231
0.209168
0.208313
0.207738
0.189615
0.229410
0.275787
0.288739
0.309858
0.287991
0.401114
0.435192
0.398595
0.401018
0.379908
0.361965
0.352896
0.324729
0.321190
0.282287
0.109597
0.158376
0.156291
0.178878
0.234236
0.248475
0.268767
0.293818
0.346429
0.359939
0.292439
0.316496
0.568061
0.605266
0.600892
0.574397
0.319530
0.296862
0.318774
0.269340
0.282964
0.353795
0.354923
0.301227
0.289731
0.286453
0.287788
0.290039
0.296009
0.379390
0.349388
0.427438
0.426712
0.426585
0.425390
0.423155
0.413358
0.380432
0.382491
0.411653
0.413403
0.413330
0.421282
0.582590
0.591142
0.497200
0.515378
0.611172
0.564420
0.393566
0.463674
0.432352
0.363835
0.362065
0.362430
0.290599
0.316926
0.302683
0.284925
0.277443
0.229305
0.197441
0.207675
0.212965
0.221545
0.243322
0.258034
0.277660
0.367895
0.317566
0.327843
0.405697
0.417121
0.423878
0.393678
0.483431
0.483567
0.382990
0.422271
0.413617
0.414794
0.424474
0.394687
0.394625
0.373815
0.347469
0.362021
0.349869
0.347289
0.338961
0.329520
0.335641
0.321465
0.322892
0.318792
0.296758
0.317651
0.475938
0.375603
0.357254
0.376020
0.440191
0.463155
0.471458
0.461715
0.429725
0.366349
0.349009
0.296185
0.321441
0.356174
0.368742
0.376285
0.383483
0.433608
0.444852
0.454854
0.445309
0.464221
0.493428
0.489064
0.455560
0.418504
0.410443
0.421911
0.394945
0.356776
0.308552
0.270797
0.254799
0.179149
0.153648
0.176345
0.348364
0.394995
0.375581
0.338861
0.336377
0.362427
0.358582
0.392316
0.386177
0.410068
0.409159
0.405310
0.463812
0.452137
0.512281
0.539084
0.515855
0.469286
0.448192
0.450479
0.436634
0.465567
0.471242
0.433899
0.415256
0.431644
0.410463
0.353819
0.358841
0.355776
0.362872
0.388329
0.401091
0.398923
0.386366
0.395350
0.369780
0.362414
0.338949
0.424258
0.435670
0.450595
0.460236
0.474053
0.453853
0.439706
0.402232
0.397924
0.499216
0.525148
0.530487
0.488434
0.472685
0.470948
0.481202
0.504383
0.466230
0.357849
0.358101
0.335993
0.378162
0.403790
0.429886
0.424473
0.420408
0.408522
0.416137
0.390399
0.371719
0.369247
0.368615
0.369340
0.372071
0.411941
0.395855
0.426782
0.494961
0.465157
0.388573
0.454851
0.449173
0.406145
0.396583
0.362151
0.390060
0.406185
0.363345
0.384506
0.375827
0.339092
0.326123
0.318049
0.285239
0.421364
0.548256
0.618736
0.578393
0.611727
0.759230
0.746612
0.733818
0.571252
0.558460
0.405167
0.558222
0.591315
0.491907
0.304676
0.185614
0.186881
0.481758
0.483400
0.534861
0.583708
0.589812
0.539845
0.545295
0.567066
0.566259
0.525536
0.519206
0.533198
0.523945
0.520723
0.578906
0.592473
0.547911
0.515996
0.489229
0.468347
0.498782
0.488897
0.470009
0.448100
0.414486
0.490306
0.487596
0.472541
0.362552
0.373195
0.361880
0.298406
0.288287
0.287949
0.293217
0.272027
0.287231
0.361470
0.432978
0.493862
0.527455
0.519654
0.523776
0.533094
0.482653
0.532368
0.491549
0.487066
0.479238
0.479742
0.482945
0.435955
0.470796
0.485958
0.484233
0.485900
0.416421
0.372970
0.431123
0.456302
0.428241
0.467009
0.435632
0.431092
0.433061
0.455018
0.467557
0.244315
0.232187
0.232925
0.220429
0.211216
0.213464
0.200667
0.203781
0.263658
0.255772
0.249725
0.250607
0.322448
0.342710
0.348302
0.315176
0.302158
0.295675
0.293136
0.289215
0.254739
0.252902
0.231323
0.222243
0.221088
0.249055
0.252103
0.271598
0.302946
0.291990
0.310718
0.303696
0.314200
0.325132
0.405230
0.416984
0.429931
0.418292
0.399440
0.402535
0.359244
0.313040
0.331952
0.308835
0.350844
0.389211
0.407748
0.406756
0.439405
0.434767
0.464793
0.462983
0.459806
0.438110
0.417240
0.233514
0.269058
0.298511
0.221497
0.204410
0.210856
0.217008
0.248869
0.281361
0.290493
0.311845
0.301495
0.288186
0.357708
0.417906
0.418544
0.509524
0.517971
0.531284
0.637469
0.636289
0.619085
0.615510
0.534387
0.635272
0.591628
0.648255
0.664775
0.657865
0.574311
0.536953
0.404182
0.393692
0.251248
0.214909
0.254761
0.299183
0.201479
0.157631
0.140833
0.132243
0.116681
0.119568
0.136139
0.143300
0.149216
0.155218
0.218722
0.295873
0.350570
0.401488
0.473281
0.499222
0.487844
0.374184
0.530186
0.589136
0.555423
0.561605
0.656308
0.523179
0.458735
0.431823
0.450078
0.478444
0.547677
0.537086
0.452137
0.498193
0.465487
0.396353
0.396353
0.394896
0.407576
0.410725
0.386900
0.438525
0.441724
0.517298
0.575463
0.557948
0.462546
0.516724
0.517182
0.464807
0.496770
0.520859
0.537983
0.565690
0.537227
0.565499
0.520197
0.586778
0.572372
0.567780