# vtk DataFile Version 3.0
Sulci
ASCII
DATASET UNSTRUCTURED_GRID
POINTS 3702 float
113.462044 116.828308 53.443092
113.320190 116.767708 53.807224
113.171509 116.779663 53.989250
112.881729 116.713150 54.381447
112.040718 116.642059 55.872543
111.711777 116.306259 56.889130
111.395599 115.807297 58.173595
111.230057 115.575806 59.346458
110.760368 115.238014 60.603500
110.578064 115.161079 61.439949
110.114212 114.597183 62.359062
109.113968 115.134758 64.300697
108.929466 114.966835 64.481308
108.552338 114.840393 64.757164
106.825348 114.356018 65.870758
82.759010 96.390961 71.788750
82.370117 96.190247 73.334412
81.083733 95.999756 73.411514
80.307686 96.070068 73.188721
79.067459 95.842094 73.022018
78.495377 95.716530 73.057930
76.647751 95.130295 73.052986
76.378250 95.015572 73.399071
74.727875 94.907028 73.287338
73.971657 94.669968 73.395065
72.582550 94.380066 73.306763
71.011986 94.226471 73.070496
70.244827 94.069000 72.874832
69.714493 93.929428 72.709641
69.236710 94.367996 72.714058
71.082901 70.793541 76.120110
71.328178 70.768311 76.248451
72.625534 70.471329 77.100868
73.102051 70.420631 77.251953
74.930038 70.189766 78.189995
75.165024 70.124947 78.300522
75.239525 70.202766 78.481216
75.468018 70.117393 78.416763
76.475731 70.204590 78.941589
77.550674 70.045456 79.530579
78.380890 70.243294 79.956650
79.271774 70.318565 80.596817
79.640724 70.433426 80.871628
80.762100 70.388260 81.167297
81.679634 70.239067 81.548363
82.664063 70.023865 81.723953
83.771492 70.170959 82.010017
84.524902 69.826408 82.244156
86.045013 69.538055 81.958488
86.587196 69.223686 81.944824
87.829910 68.506180 81.708694
87.895721 68.415443 81.718338
88.030159 68.471260 81.736023
89.247475 69.134995 82.391624
90.894798 69.743797 83.630997
110.085846 45.919769 87.517349
109.009789 45.460350 85.857071
108.669189 45.470734 84.929840
107.445198 45.113766 83.540779
107.168091 45.021564 83.021744
106.053902 44.607361 81.249115
105.949463 44.849243 80.706642
105.713715 45.531311 79.211121
105.291031 46.026733 78.218781
105.167343 46.658318 77.323219
105.254837 47.363571 76.710678
105.544083 48.826359 75.403381
105.586792 48.913570 75.255234
105.892281 49.801579 73.747269
105.897972 50.514519 72.566727
105.940102 50.773941 71.810776
105.980888 51.048576 71.478607
106.563431 51.953873 69.782578
106.805244 52.843533 69.091095
107.024826 53.531841 68.092453
107.551575 54.716324 66.483871
107.791679 55.057793 66.024422
107.999374 56.047672 65.247826
108.283905 56.784660 64.398735
108.492737 57.259872 63.988529
109.436577 58.630653 63.767586
109.518799 58.722927 63.718880
109.618713 58.836983 63.778255
79.378777 43.422539 86.488876
80.337479 42.573479 84.969208
80.547806 42.459103 84.758797
81.259026 42.499115 83.462692
81.644958 42.317955 82.655388
82.885696 42.304382 81.922745
83.598938 42.100105 81.427109
84.771469 42.744564 81.085678
85.569099 43.105495 80.870316
86.876930 44.722866 80.568871
86.992912 44.849655 80.508507
87.105980 44.953281 80.440979
88.010529 45.844906 79.414688
88.188026 46.368988 78.852837
88.649139 47.129135 77.717834
88.928253 48.488373 76.420868
88.922462 48.817795 75.968735
89.069458 48.907051 75.663589
88.955734 49.571423 74.296814
88.755974 49.710190 73.168800
88.586037 49.506901 72.688843
88.080208 49.451530 71.698532
87.676880 49.127232 70.853592
87.326401 48.898071 69.572029
86.971558 48.759903 68.320267
86.704605 48.848469 66.647484
72.044937 123.333267 94.510437
70.994690 123.280167 94.774399
70.068993 123.078583 95.217453
68.577797 123.509262 95.288513
68.346588 123.410805 95.557861
68.043938 123.284241 95.708298
67.462158 122.564568 96.330017
66.607193 122.300003 96.605995
65.605164 121.620850 97.369537
64.847984 121.215149 97.763969
64.081680 120.451233 98.556786
63.377586 120.171982 98.919556
62.718204 119.389259 99.725388
62.500359 119.201286 99.824379
95.251999 133.218018 124.352600
95.692299 133.500595 124.660515
96.043648 133.558655 124.740768
96.429665 135.669449 125.498016
96.165817 136.177902 125.701447
96.561584 137.111298 126.011543
96.383972 137.855103 125.864006
96.150864 138.251236 125.775162
96.398170 138.429214 125.491241
96.543839 138.675568 124.427521
96.562584 138.668839 123.787979
96.563965 138.621567 122.095970
96.567581 138.598160 122.007629
96.535751 138.490692 121.883575
96.405533 137.921875 121.186203
96.056694 137.680756 121.453674
95.462227 136.473251 120.622520
95.504807 136.431778 120.628220
95.449661 136.449539 120.613510
94.566597 135.240417 120.694908
93.681946 133.446732 120.429764
93.642181 133.454620 120.582756
93.070847 132.114761 121.981262
93.501839 132.826874 120.189323
93.224037 131.665283 119.681442
93.349098 130.436996 118.133003
93.349098 130.436996 118.133003
93.017471 131.355469 119.818237
93.023445 132.009628 122.083084
93.027573 132.013809 122.097733
93.753616 130.941849 123.533371
93.240799 129.857224 123.018089
92.746918 128.749908 122.710251
92.459770 128.658707 121.583870
92.482262 127.734306 122.420479
92.462883 127.437744 122.550545
92.071938 125.416290 122.558876
91.726173 124.246513 123.307358
91.647049 123.882065 123.353462
90.824165 122.027245 123.381973
90.880798 121.942772 123.391083
90.765427 121.884811 123.406670
89.937653 119.737450 123.324989
89.778320 119.187363 123.335495
89.364044 118.635498 123.311081
88.375069 116.678635 122.922180
88.360023 116.427544 122.903412
88.237679 115.955933 122.885147
88.055222 113.909317 122.556900
87.579483 112.131096 122.875381
87.455574 111.532738 122.855164
87.386642 111.146072 122.896049
86.858040 108.979248 122.437241
86.818848 108.473892 122.456078
86.511879 108.064003 122.442322
86.038605 106.366898 122.249794
85.929939 105.533768 122.181854
85.515724 103.589775 121.415619
85.510368 103.292557 121.421326
85.362045 102.631729 121.047928
85.337791 101.609131 120.408951
85.335251 101.186256 120.419693
85.262947 99.435135 119.733490
85.238991 99.279175 119.753464
85.216621 99.217171 119.778969
85.183884 98.444885 119.940338
85.196815 97.110428 120.421829
85.153839 96.827393 120.304169
85.279671 95.129547 120.860550
85.624283 94.472900 121.447937
85.626152 93.728439 120.950966
85.800728 93.534370 120.836601
86.910652 92.740906 121.379257
88.204582 92.374969 119.295486
88.241158 92.375343 119.266800
88.272224 92.399078 119.235832
88.305870 92.350624 119.228516
88.389801 92.190498 119.169144
89.741692 90.566315 118.165314
89.846062 90.280380 118.095016
90.052521 89.819061 117.851929
90.240509 90.077019 117.623566
91.153328 90.004791 116.816727
92.383888 89.716095 115.953857
92.772980 89.707268 115.593582
93.094666 87.864876 114.298904
93.201050 87.478401 113.934891
93.085052 87.430214 113.422394
108.506241 156.174164 145.838699
108.220810 156.199265 145.317780
107.179909 155.752319 143.676865
107.166092 155.749786 143.332047
106.503952 155.484726 141.862747
106.460510 155.439713 141.823761
106.367706 154.838531 141.114227
106.329857 154.634872 140.890839
106.333572 154.608826 140.874268
105.945282 153.527985 139.948059
106.387741 152.877823 139.678284
105.708099 153.241364 139.417572
105.040565 152.436859 138.704147
105.176788 152.007355 138.232361
104.917999 150.830002 138.979996
104.917999 150.830002 138.979996
105.432068 151.473221 137.794403
105.802788 150.909241 137.630783
107.160507 150.223633 137.743835
107.337311 150.169983 137.793030
107.776009 150.114655 137.866669
109.138290 149.921173 138.409225
110.086800 150.125793 138.676102
110.859520 150.241638 139.277786
111.392105 150.198471 139.382736
111.866440 150.174072 139.691544
113.526154 150.622757 139.737015
113.995163 150.649811 139.536652
114.634323 150.794952 139.433197
114.738846 150.234299 139.249680
114.335632 150.130768 139.311539
114.187645 149.552521 139.280457
114.579720 149.335083 138.975250
114.453842 148.457947 138.047882
114.495667 147.844803 137.266144
114.811630 148.122803 136.960999
114.686234 147.514923 135.979141
114.417313 147.368286 136.438339
114.380142 146.882690 135.733658
114.443504 146.773926 135.116425
114.476074 146.226929 133.957840
114.404266 145.644577 133.304962
114.542877 145.197083 132.769333
94.793114 85.263077 49.282375
94.933212 84.846153 50.056396
94.877350 84.781113 50.275291
96.031837 83.536713 52.000641
96.232338 83.406616 52.095089
96.476257 83.177551 52.326008
97.030731 82.536568 53.445175
97.538086 81.922020 54.180302
97.752922 81.782310 54.458656
98.754974 81.115036 55.751175
99.379700 79.819778 56.504089
99.422829 79.668976 56.525749
99.607536 79.391937 56.775806
100.500504 78.239326 57.408783
100.667755 77.664650 57.857681
100.887222 76.692200 58.209045
100.860313 75.760498 58.287201
100.653091 75.142899 58.330948
100.069801 73.443939 58.597698
100.010338 73.150002 58.640797
99.990501 73.075012 58.608353
99.969589 72.852478 58.675343
100.277679 71.265686 58.714180
100.291580 69.758690 59.389812
100.293488 69.623131 59.409351
100.332314 69.484009 59.435417
100.807037 68.089096 59.475956
101.366821 66.900642 59.387791
99.955917 65.934509 58.608913
99.762680 65.934746 58.328152
99.479324 65.657715 58.128498
98.232323 65.346153 57.057991
97.475731 64.487846 56.078259
96.918533 63.923389 55.308243
95.199173 62.484467 53.779083
95.078209 62.295815 53.584625
103.642792 109.089417 48.549721
104.109718 108.760498 48.971558
104.530769 108.174881 49.386314
104.525162 107.577560 49.868526
105.125473 106.434868 51.292511
105.265717 106.161919 51.448166
105.323990 105.934021 51.599037
105.266693 105.377167 52.323399
104.875694 104.381287 53.500351
104.042404 103.025452 55.593830
103.271111 103.325226 55.628578
102.280632 103.835587 56.249557
100.858917 104.931473 56.883884
100.803810 104.971367 56.985798
100.521683 105.180031 57.655415
100.016998 105.473404 58.897926
[...]
POINT_DATA 3702
SCALARS scalars float
LOOKUP_TABLE default
0.320435
0.321785
0.343600
0.379635
0.471452
0.465472
0.430950
0.399349
0.381153
0.352195
0.282483
0.209859
0.196912
0.194115
0.185997
0.146315
0.186374
0.182304
0.206058
0.221698
0.227634
0.263544
0.290497
0.362389
0.400137
0.442090
0.444784
0.427521
0.378805
0.403250
0.446818
0.453366
0.435107
0.468139
0.452302
0.435241
0.410909
0.433834
0.443292
0.428122
0.411116
0.354277
0.348130
0.357490
0.342915
0.318261
0.319159
0.256091
0.251123
0.235764
0.207455
0.204971
0.207256
0.175748
0.180949
0.304950
0.414352
0.457908
0.472684
0.453586
0.336361
0.331046
0.334974
0.348543
0.362778
0.378164
0.408293
0.404596
0.399155
0.427034
0.424813
0.436005
0.419238
0.470116
0.490063
0.452950
0.427350
0.411593
0.362445
0.346177
0.293152
0.291283
0.284326
0.331052
0.419874
0.446017
0.544480
0.537649
0.385348
0.366527
0.404027
0.391533
0.431622
0.430153
0.438283
0.417640
0.406904
0.401848
0.471658
0.473109
0.494999
0.520232
0.547803
0.511540
0.467930
0.413107
0.456248
0.454355
0.358281
0.154687
0.158269
0.151443
0.193604
0.208528
0.208905
0.186190
0.201705
0.210077
0.222503
0.222182
0.230884
0.278420
0.265384
0.415545
0.424837
0.441235
0.551488
0.580713
0.643345
0.637527
0.626925
0.644444
0.638509
0.628663
0.646502
0.641705
0.637849
0.579766
0.521731
0.540724
0.535722
0.539566
0.421199
0.415003
0.410184
0.360269
0.394778
0.350954
0.348105
0.348105
0.340804
0.355866
0.356311
0.365643
0.343373
0.358083
0.324949
0.356590
0.367596
0.393437
0.475032
0.468314
0.414164
0.408255
0.412342
0.355272
0.339018
0.351451
0.367050
0.361092
0.362860
0.319897
0.372978
0.376376
0.377666
0.341624
0.324435
0.346033
0.338811
0.328423
0.315009
0.309184
0.311879
0.300817
0.301590
0.320262
0.322019
0.324704
0.330522
0.330863
0.338554
0.339658
0.301425
0.352933
0.339060
0.232178
0.239055
0.236994
0.235645
0.236616
0.238189
0.234283
0.226415
0.235545
0.217421
0.174049
0.181188
0.186579
0.216452
0.213143
0.299401
0.353085
0.457726
0.696759
0.754819
0.825067
0.805277
0.715482
0.676605
0.670421
0.363949
0.303153
0.384249
0.534005
0.610517
0.616517
0.616517
0.669437
0.673559
0.678746
0.672718
0.714654
0.673217
0.688244
0.564637
0.705287
0.562795
0.557650
0.601522
0.596731
0.538336
0.540179
0.424268
0.477524
0.520786
0.464032
0.465713
0.517453
0.506545
0.543860
0.620000
0.656172
0.573930
0.469278
0.352786
0.404500
0.425749
0.495351
0.479369
0.482800
0.541438
0.543352
0.543758
0.537937
0.463095
0.450920
0.452520
0.391110
0.414850
0.432026
0.433641
0.438780
0.509333
0.515247
0.508313
0.510258
0.408381
0.465840
0.460031
0.457168
0.395325
0.365179
0.282587
0.264433
0.282562
0.311433
0.355344
0.371546
0.325934
0.313543
0.457573
0.469247
0.433677
0.362915
0.416988
0.408229
0.401905
0.382584
0.312922
0.216355
0.192902
0.179785
0.174152
0.173808
0.189062
0.210848
0.209958
0.208051
0.217505
0.218526
0.197740
0.224411
0.213576
0.152840
0.141984
0.126437
0.129492
0.112993
0.109069
0.112242
0.110886
0.132855
0.119615
0.119630
0.111235
0.118223
0.121220
0.308763
0.356508
0.348251
0.414012
0.344832
0.442077
0.474123
0.471137
0.537791
0.536637
0.538938
0.511894
0.511906
0.463777
0.513771
0.517065
0.483556
0.507966
0.518283
0.496200
0.469152
0.452637
0.412770
0.268777
0.219408
0.198376
0.223149
0.402941
0.441796
0.476258
0.478417
0.499927
0.486522
0.496818
0.497020
0.443449
0.436686
0.491992
0.485009
0.509600
0.516131
0.453217
0.496797
0.417060
0.397612
0.375385
0.298114
0.282735
0.279841
0.282957
0.313994
0.440113
0.494005
0.509055
0.431124
0.399754
0.398743
0.318472
0.338382
0.333164
0.300117
0.324275
0.442087
0.470545
0.524552
0.544635
0.559092
0.519289
0.548963
0.548605
0.507639
0.527186
0.477243
0.450442
0.441772
0.372516
0.301543
0.315568
0.315826
0.330180
0.329699
0.295110
0.302267
0.306276
0.310991
0.335206
0.342830
0.328355
0.317374
0.343809
0.338500
0.324923
0.327149
0.304229
0.317304
0.319368
0.332626
0.332604
0.343003
0.342478
0.350000
0.379401
0.380215
0.354554
0.351592
0.353250
0.351190
0.352316
0.384231
0.384472
0.384713
0.391001
0.442440
0.446208
0.414605
0.440812
0.452080
0.425320
0.378743
0.375197
0.372952
0.410214
0.385455
0.348799
0.358611
0.343521
0.344320
0.351634
0.354423
0.339573
0.333083
0.332570
0.301230
0.328451
0.327887
0.375234
0.376234
0.391663
0.387909
0.390985
0.379947
0.360034
0.365959
0.339512
0.337056
0.301382
0.303521
0.276120
0.272360
0.251265
0.251321
0.253940
0.248016
0.258602
0.269236
0.284069
0.309861
0.295832
0.324554
0.346001
0.418953
0.442681
0.447371
0.527092
0.535029
0.492716
0.487389
0.471037
0.391799
0.449041
0.437105
0.440551
0.445356
0.411682
0.380984
0.373271
0.365291
0.362306
0.365643
0.371462
0.369913
0.333265
0.295474
0.306153
0.326093
0.316603
0.346922
0.375019
0.398885
0.391698
0.385606
0.371724
0.359618
0.376132
0.350276
0.370056
0.360205
0.368022
0.388029
0.383951
0.407013
0.401478
0.394657
0.415191
0.395603
0.405494
0.391570
0.336382
0.330874
0.331265
0.331083
0.330036
0.329705
0.309645
0.298262
0.304373
0.325097
0.345565
0.357395
0.374642
0.359156
0.323663
0.280918
0.333624
0.376333
0.361999
0.363073
0.369666
0.389656
0.431974
0.432331
0.490731
0.575271
0.564903
0.537421
0.510760
0.346755
0.236757
0.299027
0.309244
0.270563
0.315360
0.315381
0.320359
0.359597
0.366762
0.365938
0.369255
0.371579
0.361585
0.377664
0.377334
0.377310
0.377487
0.363492
0.405552
0.408453
0.405782
0.419313
0.417970
0.420195
0.484233
0.365248
0.451156
0.407089
0.447069
0.428001
0.428001
0.331013
0.323110
0.321834
0.321955
0.322964
0.325000
0.359642
0.417548
0.420503
0.555873
0.556649
0.381519
0.333502
0.212114
0.521544
0.414926
0.435720
0.417279
0.453448
0.442110
0.444702
0.445292
0.398537
0.438600
0.434396
0.439401
0.440487
0.413568
0.430477
0.412359
0.394709
0.394001
0.394202
0.385795
0.394363
0.400411
0.392099
0.450772
0.470447
0.515725
0.518587
0.587568
0.616388
0.543090
0.513576
0.465637
0.402099
0.387640
0.380456
0.377394
0.456352
0.479609
0.529545
0.608548
0.567579
0.483008
0.410959
0.325556
0.261264
0.255016
0.254664
0.278121
0.272616
0.207140
0.207669
0.185450
0.145036
0.168631
0.168391
0.168754
0.169180
0.190795
0.183410
0.214232
0.257417
0.222577
0.225446
0.230208
0.276384
0.284643
0.291761
0.353018
0.348794
0.368643
0.386635
0.403052
0.391126
0.344534
0.334496
0.231638
0.385514
0.417992
0.304760
0.294301
0.253775
0.223092
0.209097
0.206919
0.232579
0.238260
0.346265
0.367398
0.292382
0.356998
0.382961
0.438027
0.450579
0.405595
0.394449
0.392228
0.393827
0.362924
0.395669
0.395844
0.395937
0.374280
0.347359
0.331522
0.330335
0.293685
0.266364
0.259390
0.227798
0.188014
0.192551
0.201853
0.396011
0.427517
0.480297
0.477906
0.428910
0.504521
0.525297
0.531538
0.565483
0.628105
0.699860
0.721164
0.718405
0.720040
0.719010
0.557695
0.579555
0.560693
0.582479
0.522848
0.544303
0.386729
0.396705
0.134074
0.131928
0.131653
0.131105
0.130023
0.118125
0.115341
0.105702
0.105082
0.104716
0.104966
0.108534
0.116259
0.122035
0.132424
0.130081
0.122515
0.137829
0.290495
0.294709
0.286007
0.269379
0.268941
0.259144
0.269056
0.303782
0.329259
0.372768
0.364487
0.404545
0.429670
0.452469
0.461549
0.451174
0.412120
0.410862
0.378297
0.296204
0.276665
0.270900
0.296682
0.301842
0.368216
0.401094
0.405536
0.384849
0.374547
0.328560
0.311707
0.307550
0.310960
0.298602
0.289106
0.235992
0.208567
0.218608
0.193346
0.212231
0.202547
0.219903
0.300630
0.293317
0.311905
0.348320
0.357229
0.315756
0.286316
0.263991
0.226343
0.231468
0.238350
0.234313
0.260101
0.279930
0.270450
0.283001
0.326572
0.324891
0.295886
0.299812
0.260663
0.308628
0.316135
0.322125
0.294816
0.305260
0.317519
0.119680
0.150591
0.186831
0.216773
0.210654
0.254130
0.287421
0.276245
0.293377
0.317612
0.294772
0.253955
0.314201
0.314915
0.313739
0.254403
0.287182
0.276625
0.285721
0.266774
0.233784
0.206967
0.209484
0.221985
0.241169
0.176459
0.270421
0.295047
0.325646
0.318477
0.322773
0.315906
0.318101
0.322142
0.309834
0.254559
0.252578
0.243572
0.244911
0.198789
0.234494
0.349764
0.315607
0.449375
0.471826
0.421089
0.516464
0.519154
0.506063
0.514861
0.507905
0.478357
0.439329
0.410848
0.382472
0.314576
0.296665
0.232709
0.282867
0.255900
0.324828
0.309706
0.347166
0.331021
0.205336
0.121033
0.123835
0.435883
0.445129
0.445468
0.458951
0.470453
0.432577
0.495946
0.549343
0.533217
0.546687
0.558539
0.559280
0.560116
0.491005
0.517176
0.523374
0.505736
0.517289
0.550485
0.544316
0.448834
0.488014
0.502646
0.509842
0.542756
0.581669
0.628492
0.567154
0.508328
0.449829
0.494791
0.472153
0.444076
0.441450
0.419355
0.420138
0.301664
0.264549
0.248899
0.256102
0.278474
0.288394
0.251208
0.320147
0.319637
0.324121
0.345238
0.327966
0.330996
0.286885
0.293581
0.284565
0.285776
0.283667
0.301424
0.302499
0.366084
0.398574
0.398010
0.413307
0.425006
0.455294
0.468446
0.426560
0.447044
0.420199
0.393823
0.380611
0.377344
0.368201
0.416137
0.440828
0.411715
0.432266
0.462211
0.449480
0.455395
0.440090
0.399823
0.438279
0.502722
0.542749
0.549545
0.516551
0.423769
0.545040
0.537319
0.538004
0.434541
0.321345
0.377199
0.416027
0.355853
0.341959
0.329813
0.333875
0.342054
0.336197
0.363978
0.369676
0.372548
0.378985
0.421644
0.431019
0.429226
0.432018
0.407122
0.413140
0.410978
0.411279
0.415520
0.427522
0.421734
0.417934
0.431199
0.496952
0.546916
0.490343
0.421434
0.398886
0.425054
0.420599
0.420845
0.454837
0.455870
0.464916
0.409900
0.336792
0.304772
0.290005
0.234929
0.269223
0.269367
0.268521
0.267330
0.180938
0.259520
0.317845
0.271237
0.393616
0.571584
0.594358
0.620952
0.598511
0.575897
0.497395
0.494403
0.558230
0.610552
0.600002
0.597697
0.467489
0.537506
0.525721
0.463577
0.428216
0.412962
0.411599
0.336230
0.358190
0.354578
0.347391
0.263485
0.246876
0.272801
0.564134
0.593418
0.746418
0.844425
0.938019
0.618978
0.560446
0.642611
0.591807
0.624740
0.627451
0.591323
0.583285
0.514929
0.495255
0.591097
0.589503
0.604459
0.591332
0.501638
0.507526
0.499923
0.483330
0.472002
0.473192
0.428158
0.456303
0.477715
0.533807
0.527640
0.496780
0.493631
0.492327
0.460454
0.478243
0.477499
0.498040
0.449124
0.472353
0.514240
0.562534
0.564669
0.559956
0.493131
0.497206
0.495999
0.493283
0.492271
0.491816
0.494674
0.509708
0.537938
0.526258
0.345073
0.367836
0.395591
0.443837
0.450448
0.422816
0.437032
0.437887
0.492091
0.568044
0.589358
0.576808
0.594975
0.733876
0.682043
0.464421
0.399883
0.118404
0.219153
0.232078
0.235707
0.234171
0.234500
0.227871
0.216159
0.209958
0.209613
0.209591
0.167313
0.172626
0.219718
0.216099
0.232179
0.227362
0.221659
0.184801
0.182277
0.183290
0.206289
0.273390
0.318368
0.288236
0.301034
0.349356
0.315592
0.325399
0.314540
0.345107
0.345494
0.316093
0.351466
0.389090
0.371189
0.330771
0.292222
0.189712
0.426311
0.428614
0.432623
0.474589
0.481301
0.465699
0.457160
0.447229
0.449620
0.395947
0.413014
0.360692
0.293382
0.242267
0.205958
0.180270
0.224055
0.284875
0.294612
0.313056
0.336401
0.457044
0.470931
0.504137
0.466592
0.512980
0.502848
0.471355
0.474203
0.430319
0.438476
0.411287
0.446280
0.440003
0.442429
0.441063
0.461813
0.459314
0.437588
0.384757
0.344747
0.316982
0.272312
0.231090
0.205267
0.207623
0.202797
0.169809
0.124145
0.115418
0.163182
0.181621
0.285410
0.291501
0.354270
0.414402
0.319058
0.416254
0.424877
0.402030
0.450016
0.431401
0.409293
0.389604
0.405089
0.370327
0.394005
0.395176
0.392543
0.376146
0.384165
0.335523
0.360540
0.425465
0.432061
0.445747
0.391762
0.293477
0.201027
0.245251
0.216125
0.203252
0.154507
0.134871
0.115769
0.110659
0.117773
0.132896
0.143069
0.126875
0.145706
0.152178
0.164146
0.154596
0.143252
0.152214
0.149235
0.146387
0.151327
0.152005
0.167638
0.162008
0.154182
0.149879
0.139461
0.162696
0.164471
0.174407
0.174538
0.168312
0.139468
0.134097
0.116321
0.127500
0.128694
0.149484
0.185333
0.239757
0.265260
0.186716
0.241609
0.172707
0.176247
0.107420
0.149366
0.140990
0.103800
0.226648
0.232611
0.448490
0.617293
0.697025
0.769469
0.793896
0.787978
0.547835
0.477278
0.606636
0.588031
0.516272
0.585818
0.491421
0.537343
0.458714
0.233087
0.463453
0.278965
0.316339
0.290412
0.317264
0.307677
0.316583
0.249218
0.277532
0.322657
0.225343
0.227918
0.248366
0.259119
0.264485
0.341803
0.343434
0.347603
0.322301
0.339391
0.343177
0.327256
0.369608
0.363914
0.397370
0.403597
0.368844
0.338430
0.365914
0.338562
0.310219
0.306240
0.304499
0.239706
0.312257
0.321657
0.316508
0.340909
0.384011
0.366104
0.389940
0.382873
0.352390
0.354141
0.363714
0.344864
0.323133
0.348200
0.347893
0.325512
0.290678
0.273758
0.289340
0.305670
0.304679
0.516402
0.333835
0.487747
0.495857
0.467643
0.339498
0.380121
0.344396
0.375517
0.407187
0.446119
0.447421
0.403783
0.397453
0.404905
0.464206
0.446062
0.453854
0.375324
0.496466
0.482705
0.508252
0.556652
0.541169
0.486245
0.430353
0.374477
0.360684
0.319737
0.357138
0.360063
0.319100
0.291626
0.278348
0.294855
0.347102
0.350458
0.394934
0.398192
0.136642
0.158302
0.159041
0.173716
0.161774
0.142362
0.147124
0.131771
0.127085
0.259626
0.272285
0.269118
0.310176
0.310178
0.272646
0.269469
0.284543
0.339403
0.352681
0.386844
0.370700
0.400490
0.404672
0.421252
0.422088
0.409350
0.436764
0.425018
0.471782
0.471686
0.443822
0.424914
0.462272
0.446833
0.444421
0.410689
0.417499
0.406406
0.370524
0.338396
0.283178
0.262214
0.576901
0.604826
0.765114
0.806995
0.892096
0.740198
0.591015
0.420277
0.386243
0.358502
0.320331
0.294119
0.314984
0.306424
0.305015
0.232795
0.272497
0.216389
0.206994
0.285222
0.266136
0.330520
0.432299
0.542862
0.569249
0.526938
0.570028
0.482524
0.454700
0.397321
0.314056
0.297761
0.284996
0.284441
0.133373
0.140649
0.152152
0.246068
0.246446
0.248611
0.286847
0.353747
0.283187
0.276941
0.245584
0.262284
0.246641
0.223325
0.215792
0.231413
0.220956
0.240532
0.335163
0.348720
0.348100
0.335939
0.192579
0.171357
0.164592
0.216886
0.393432
0.437777
0.372619
0.332904
0.361639
0.341065
0.300817
0.272778
0.319029
0.311231
0.306177
0.265941
0.232494
0.113025
0.172714
0.191330
0.216102
0.339422
0.385356
0.387652
0.378711
0.431587
0.398750
0.338819
0.367295
0.467235
0.591601
0.555352
0.498044
0.447525
0.414645
0.304697
0.286414
0.281764
0.111802
0.429983
0.451417
0.484208
0.479439
0.486488
0.454638
0.516433
0.442164
0.475071
0.470202
0.469266
0.442341
0.356290
0.332520
0.324337
0.284283
0.295932
0.350364
0.361305
0.438722
0.458297
0.497887
0.509315
0.485104
0.483392
0.522398
0.576149
0.612381
0.558007
0.590780
0.650406
0.650670
0.606745
0.658862
0.686524
0.717965
0.656334
0.514494
0.547772
0.519495
0.494777
0.404339
0.314974
0.358225
0.375989
0.392016
0.393490
0.381192
0.378841
0.405701
0.401680
0.343732
0.332620
0.362853
0.356954
0.379623
0.441340
0.452868
0.467639
0.442446
0.434133
0.420544
0.411389
0.446829
0.454574
0.514287
0.510302
0.420982
0.408509
0.354211
0.386051
0.393179
0.397884
0.371277
0.324229
0.309257
0.309257
0.312277
0.317595
0.289586
0.320226
0.327941
0.351705
0.425753
0.428729
0.430223
0.476548
0.494688
0.536276
0.515389
0.543985
0.550186
0.547092
0.553725
0.568906
0.592439
0.566016
0.610643
0.617440
0.542660
0.472782
0.359737
0.288912
0.312716
0.391372
0.564356
0.567887
0.498614
0.500088
0.444757
0.478170
0.490267
0.485142
0.490107
0.524797
0.631224
0.617797
0.564498
0.515607
0.449088
0.538532
0.596965
0.720803
0.711761
0.564555
0.544265
0.500225
0.477787
0.422611
0.378725
0.428656
0.427963
0.481540
0.413976
0.368586
0.327458
0.291914
0.281569
0.276776
0.284168
0.254888
0.251452
0.211521
0.202262
0.188270
0.186788
0.193098
0.250423
0.262927
0.277344
0.431194
0.398006
0.274844
0.307650
0.425538
0.393389
0.375813
0.264616
0.347334
0.363303
0.301062
0.303372
0.288924
0.289388
0.290439
0.318757
0.347308
0.411246
0.415253
0.539637
0.547589
0.456771
0.445187
0.385700
0.374128
0.380911
0.340583
0.366599
0.367648
0.377255
0.362342
0.393187
0.384102
0.382865
0.387176
0.391932
0.387054
0.374211
0.359347
0.359497
0.344953
0.358218
0.357999
0.332131
0.347585
0.347739
0.358157
0.393948
0.390392
0.394533
0.317555
0.363603
0.332352
0.554729
0.529409
0.588761
0.658249
0.659063
0.539424
0.484968
0.504946
0.427582
0.397621
0.424021
0.416877
0.428858
0.404180
0.421222
0.414910
0.446599
0.446133
0.462541
0.461994
0.540307
0.541345
0.451666
0.526930
0.510657
0.534234
0.481673
0.519168
0.487678
0.537330
0.530307
0.554975
0.508333
0.582009
0.569536
0.560114
0.453590
0.487182
0.459818
0.358090
0.357799
0.204773
0.205171
0.248324
0.254507
0.273030
0.253608
0.307887
0.309568
0.312633
0.342077
0.373549
0.376204
0.357608
0.380953
0.382635
0.356233
0.376050
0.384285
0.383764
0.383244
0.384380
0.364374
0.281151
0.293816
0.269714
0.301059
0.400199
0.478721
0.484290
0.523274
0.520427
0.442443
0.437202
0.454388
0.427746
0.452202
0.450792
0.456390
0.444936
0.461531
0.456968
0.459059
0.420169
0.431355
0.434872
0.415107
0.414342
0.429733
0.413287
0.360302
0.365256
0.362192
0.359095
0.356526
0.334722
0.232130
0.226972
0.225788
0.205119
0.228760
0.229976
0.246116
0.222979
0.251528
0.251941
0.251154
0.223723
0.214188
0.202035
0.250450
0.237933
0.192701
0.328861
0.365205
0.390148
0.388607
0.383206
0.384679
0.383980
0.383872
0.366856
0.367428
0.358586
0.355067
0.334428
0.336484
0.339326
0.326834
0.303672
0.301876
0.301128
0.273228
0.269330
0.253637
0.252874
0.259576
0.299927
0.216593
0.257484
0.273956
0.296848
0.308787
0.352841
0.388113
0.422067
0.442462
0.442355
0.442495
0.417173
0.463022
0.467153
0.423940
0.447568
0.365864
0.343958
0.318557
0.360622
0.361364
0.332914
0.380304
0.382461
0.379580
0.407692
0.401210
0.402392
0.372743
0.385078
0.387267
0.377045
0.383415
0.472986
0.271916
0.282300
0.329870
0.443689
0.480587
0.490822
0.441866
0.481151
0.452730
0.436006
0.435218
0.435387
0.359775
0.360364
0.342238
0.294348
0.293042
0.297851
0.273729
0.249168
0.228540
0.235798
0.227754
0.228748
0.231509
0.246095
0.304773
0.315135
0.316160
0.322679
0.321111
0.308471
0.254458
0.239184
0.241697
0.169033
0.284787
0.286797
0.293374
0.317382
0.364864
0.389660
0.377817
0.384249
0.385096
0.411118
0.408975
0.412652
0.381927
0.404745
0.402736
0.370104
0.384481
0.369854
0.361775
0.349388
0.384037
0.384579
0.393541
0.355341
0.341650
0.326949
0.319905
0.347232
0.322435
0.350516
0.336932
0.325685
0.253318
0.250013